3
Lattice="3.185945949661419 0.0 0.0 -1.5929729748307095 2.7591101274909273 0.0 0.0 -0.0 18.14559487597237" Properties=species:S:1:pos:R:3 energy=-22.261998009484405 dipole="3.389033487755168 -1.9566593964481056 -7.390904355928587e-11" free_energy=-22.261998009768675 pbc="T T F"
W        0.00000000       0.00000000       9.07279744
S        1.59297297       0.91970338      10.64559488
S        1.59297297       0.91970338       7.50000000
